83
 energy: -102.047893144593 gnorm: 0.000388730567 xtb: 6.3.0 (preview)
C         -3.24850639000000    1.10625040000000   -1.21245672000000
C         -2.34532323000000    1.20545455000000    0.01636089000000
C         -2.97123860000000    2.12945695000000    1.06565887000000
C         -0.95850199000000    1.70551333000000   -0.30888136000000
C         -0.80226549000000    2.75239009000000   -1.19927249000000
C          0.44595900000000    3.29575911000000   -1.45983252000000
C          0.62828430000000    4.39712273000000   -2.47521917000000
C          0.27189968000000    3.89445147000000   -3.87583839000000
C         -0.20438330000000    5.62796885000000   -2.11213634000000
C          1.52318246000000    2.80714025000000   -0.74655907000000
C          1.40962212000000    1.77513293000000    0.18327452000000
C          2.69023167000000    1.51919764000000    0.96582914000000
C          2.91023266000000    0.17462912000000    1.65825958000000
C          2.81380081000000    2.63695116000000    2.01139527000000
C          0.15740940000000    1.17602462000000    0.35462356000000
C          0.00000100000000    0.00000100000000    1.24805258000000
C          0.02065264000000   -1.30438585000000    0.74070068000000
P         -0.36745479000000   -1.43455373000000   -1.08049796000000
C          1.27456088000000   -1.94856131000000   -1.91513946000000
C          0.99875486000000   -2.35656591000000   -3.36300856000000
C          2.09033092000000   -3.01816424000000   -1.20106721000000
C          2.07753569000000   -0.64512340000000   -1.97157129000000
C         -1.62462968000000   -2.89388912000000   -1.23367981000000
C         -2.40817736000000   -2.53758500000000   -2.50579109000000
C         -2.59505993000000   -2.79633037000000   -0.05435563000000
C         -1.14503195000000   -4.33744720000000   -1.36616153000000
C          0.10805509000000   -2.36490675000000    1.66205480000000
O          0.30168456000000   -3.61733315000000    1.15258330000000
C          0.47707881000000   -4.69187932000000    2.03798382000000
C          0.01880729000000   -2.11654363000000    3.02167079000000
C         -0.14308063000000   -0.82763590000000    3.50507021000000
C         -0.11792452000000    0.23868310000000    2.62603676000000
O         -0.20729894000000    1.55513998000000    3.00074121000000
C         -0.36281626000000    1.84897707000000    4.36455728000000
H         -3.57994672000000    2.08825826000000   -1.54124939000000
H         -2.71490701000000    0.62781503000000   -2.03001366000000
H         -4.13488044000000    0.51925023000000   -0.97868638000000
H         -2.25010989000000    0.20856281000000    0.45632845000000
H         -2.32843693000000    2.19332116000000    1.93903970000000
H         -3.09508606000000    3.13164614000000    0.66010629000000
H         -3.94655798000000    1.75402842000000    1.37007257000000
H         -1.66832601000000    3.15104134000000   -1.70237265000000
H          1.68469522000000    4.68950733000000   -2.47598569000000
H          0.44344404000000    4.67501782000000   -4.61438807000000
H         -0.77310709000000    3.59833627000000   -3.92290877000000
H          0.88311277000000    3.03224305000000   -4.13363578000000
H          0.00000100000000    6.44056660000000   -2.80645340000000
H          0.03572445000000    5.96287514000000   -1.10530517000000
H         -1.26694723000000    5.40254397000000   -2.15394626000000
H          2.49774361000000    3.24736071000000   -0.91338275000000
H          3.51311940000000    1.64192016000000    0.24909285000000
H          2.67085782000000   -0.66528356000000    1.01357253000000
H          2.31733287000000    0.08800368000000    2.56263978000000
H          3.96077981000000    0.09609986000000    1.93771160000000
H          1.96934312000000    2.59568016000000    2.69336807000000
H          3.73447625000000    2.52356008000000    2.58094137000000
H          2.81699129000000    3.61452705000000    1.53553083000000
H          1.94108288000000   -2.42224514000000   -3.90769487000000
H          0.37855552000000   -1.60817817000000   -3.85442948000000
H          0.50856403000000   -3.32230616000000   -3.43537398000000
H          1.56373565000000   -3.96581694000000   -1.16819432000000
H          2.31470573000000   -2.71461218000000   -0.18152411000000
H          3.03440776000000   -3.16717567000000   -1.72744953000000
H          2.31117279000000   -0.28485985000000   -0.97702278000000
H          1.51010910000000    0.13198012000000   -2.48206650000000
H          3.01253746000000   -0.80098840000000   -2.50983211000000
H         -2.85774426000000   -1.55178042000000   -2.41551390000000
H         -1.76599687000000   -2.54164468000000   -3.38255211000000
H         -3.20668482000000   -3.26161945000000   -2.66795082000000
H         -3.47340524000000   -3.41265548000000   -0.24854078000000
H         -2.14053169000000   -3.14061628000000    0.86941141000000
H         -2.92956739000000   -1.77050778000000    0.08752616000000
H         -0.58893936000000   -4.49635389000000   -2.28520660000000
H         -0.52988093000000   -4.63234197000000   -0.52732729000000
H         -2.01797882000000   -4.99179730000000   -1.39452416000000
H         -0.42368421000000   -4.88335100000000    2.63232198000000
H          0.68201226000000   -5.56270506000000    1.41544065000000
H          1.32647338000000   -4.52716587000000    2.70925383000000
H          0.05228204000000   -2.92571866000000    3.73375568000000
H         -0.25315272000000   -0.68332765000000    4.56805042000000
H         -1.28202257000000    1.41288445000000    4.77082747000000
H          0.49274501000000    1.50303448000000    4.95566174000000
H         -0.42458915000000    2.93490407000000    4.42691079000000
